# vtk DataFile Version 3.0
STAP++ Post-processing file
ASCII
DATASET UNSTRUCTURED_GRID
POINTS 4221 double
0 0 0
0.0499995 7.01059e-09 0
0.1 7.20416e-08 0
0.15 -4.85877e-07 0
0.2 -5.7874e-07 0
0.25 -1.46273e-07 0
0.3 -4.91491e-08 0
0.35 -3.05435e-07 0
0.4 -9.30628e-08 0
0.45 1.56066e-07 0
0.5 -3.16429e-07 0
0.55 -3.10527e-07 0
0.6 3.67192e-07 0
0.65 7.16613e-07 0
0.7 5.41584e-07 0
0.75 8.04131e-08 0
0.8 9.95739e-08 0
0.85 2.26622e-07 0
0.9 -1.14068e-07 0
0.95 8.41209e-08 0
1 5.38455e-07 0
1.05 3.23065e-07 0
1.1 -2.54581e-07 0
1.15 -5.41911e-07 0
1.2 -1.41741e-07 0
1.25 8.96433e-08 0
1.3 -2.09243e-07 0
1.35 -9.68731e-08 0
1.4 5.03625e-08 0
1.45 -4.24191e-07 0
1.5 -8.13007e-07 0
1.55 -4.12865e-07 0
1.6 2.50365e-07 0
1.65 1.38265e-07 0
1.7 -1.93599e-07 0
1.75 1.37432e-07 0
1.8 2.66657e-07 0
1.85 3.62563e-08 0
1.9 2.81914e-07 0
1.95 6.74022e-07 0
2 6.3734e-07 0
2.05 2.89669e-08 0
2.1 -4.56164e-07 0
2.15 -6.38964e-08 0
2.2 1.86941e-07 0
2.25 3.31656e-08 0
2.3 2.88692e-07 0
2.35 4.15158e-07 0
2.4 2.53546e-08 0
2.45 -5.43972e-07 0
2.5 -5.77721e-07 0
2.55 -1.25159e-09 0
2.6 -1.07334e-07 0
2.65 -5.65223e-07 0
2.7 -3.83243e-07 0
2.75 -1.97802e-07 0
2.8 -3.06462e-07 0
2.85 -2.20935e-07 0
2.9 4.27091e-07 0
2.95 7.95668e-07 0
3 1.31997e-07 0
3.05 -2.4155e-07 0
3.1 7.01522e-08 0
3.15 1.38728e-07 0
3.2 1.43265e-07 0
3.25 3.1941e-07 0
3.3 5.30985e-07 0
3.35 3.85252e-07 0
3.4 -2.55506e-07 0
3.45 -2.83578e-07 0
3.5 3.16986e-07 0
3.55 2.88588e-07 0
3.6 -9.59063e-08 0
3.65 -1.89559e-07 0
3.7 -2.36861e-07 0
3.75 -4.93941e-07 0
3.8 -7.45962e-07 0
3.85 -2.64167e-07 0
3.9 3.16883e-07 0
3.95 -9.31459e-08 0
4 -4.61977e-07 0
4.05 -1.49881e-07 0
4.1 1.26955e-07 0
4.15 9.83848e-08 0
4.2 1.50681e-07 0
4.25 5.93791e-07 0
4.3 4.38429e-07 0
4.35 -3.21414e-07 0
4.4 -2.40283e-07 0
4.45 2.7654e-07 0
4.5 4.85722e-07 0
4.55 4.38623e-07 0
4.6 2.67028e-07 0
4.65 3.23782e-07 0
4.7 -1.18209e-08 0
4.75 -5.69006e-07 0
4.8 -2.36255e-07 0
4.85 1.88106e-07 0
4.9 -1.18431e-07 0
4.95 -5.48407e-07 0
5 -5.15967e-07 0
5.05 -1.69747e-07 0
5.1 -1.93167e-07 0
5.15 -2.23177e-07 0
5.2 2.97508e-07 0
5.25 3.23756e-07 0
5.3 -3.77284e-07 0
5.35 -5.57768e-07 0
5.4 -1.83283e-08 0
5.45 4.07425e-07 0
5.5 3.23855e-07 0
5.55 3.68665e-07 0
5.6 6.50426e-07 0
5.65 2.43891e-07 0
5.7 -2.23503e-07 0
5.75 8.16752e-08 0
5.8 4.21118e-07 0
5.85 3.63713e-07 0
5.9 -1.25255e-07 0
5.95 -3.7042e-07 0
6 -7.05782e-08 0
6.05 -2.59701e-07 0
6.1 -3.86256e-07 0
6.15 1.27727e-07 0
6.2 2.02321e-07 0
6.25 -3.26574e-07 0
6.3 -7.61308e-07 0
6.35 -4.51205e-07 0
6.4 7.78153e-08 0
6.45 -7.16489e-08 0
6.5 -3.7886e-08 0
6.55 3.43059e-07 0
6.6 1.27679e-07 0
6.65 -2.86106e-07 0
6.7 -6.72386e-08 0
6.75 6.3038e-07 0
6.8 7.70866e-07 0
6.85 2.53678e-07 0
6.9 1.53942e-07 0
6.95 2.05329e-07 0
7 -1.52531e-07 0
7.05 -2.29384e-07 0
7.1 1.0038e-07 0
7.15 3.37378e-07 0
7.2 6.01314e-08 0
7.25 -5.37475e-07 0
7.3 -3.64253e-07 0
7.35 1.04431e-07 0
7.4 -1.43249e-07 0
7.45 -2.37231e-07 0
7.5 -3.69438e-08 0
7.55 -2.50161e-07 0
7.6 -7.1043e-07 0
7.65 -7.33832e-07 0
7.7 1.03121e-07 0
7.75 6.00746e-07 0
7.8 2.65127e-07 0
7.85 2.92654e-07 0
7.9 4.35037e-07 0
7.95 1.4565e-07 0
8 -1.06475e-07 0
8.05 1.46531e-07 0
8.1 6.161e-07 0
8.15 2.65192e-07 0
8.2 -3.06339e-07 0
8.25 -9.6776e-08 0
8.3 1.43066e-07 0
8.35 1.31556e-07 0
8.4 1.11723e-07 0
8.45 1.41622e-07 0
8.5 1.05331e-07 0
8.55 -5.36372e-07 0
8.6 -9.60303e-07 0
8.65 -3.3524e-07 0
8.7 7.67868e-08 0
8.75 -1.78657e-07 0
8.8 -2.14647e-07 0
8.85 -2.27216e-08 0
8.9 -5.81177e-08 0
8.95 -2.92862e-07 0
9 1.03976e-08 0
9.05 7.47095e-07 0
9.1 5.90356e-07 0
9.15 -3.60539e-08 0
9.2 -2.18275e-08 0
9.25 1.73296e-07 0
9.3 1.40879e-07 0
9.35 7.03108e-08 0
9.4 3.69184e-07 0
9.45 5.49471e-07 0
9.5 -1.01168e-07 0
9.55 -4.31881e-07 0
9.6 -2.86095e-08 0
9.65 2.36584e-07 0
9.7 9.97524e-08 0
9.75 -4.25613e-07 0
9.8 -5.90575e-07 0
9.85 -3.46837e-07 0
9.9 -3.75522e-07 0
9.95 -1.47988e-07 0
10 2.62997e-08 0
0 0.05 0
0.0500002 0.049999 0
0.0999996 0.0500007 0
0.15 0.0500009 0
0.2 0.0500002 0
0.25 0.0500002 0
0.3 0.0500007 0
0.35 0.0500003 0
0.4 0.0499999 0
0.45 0.0500002 0
0.5 0.0500005 0
0.55 0.0500001 0
0.6 0.0499991 0
0.65 0.0499993 0
0.7 0.0499999 0
0.75 0.0499993 0
0.8 0.0499996 0
0.85 0.0500001 0
0.9 0.0499997 0
0.95 0.0499997 0
1 0.0499994 0
1.05 0.0499997 0
1.1 0.0500007 0
1.15 0.0500002 0
1.2 0.0499998 0
1.25 0.0500004 0
1.3 0.0500005 0
1.35 0.0499999 0
1.4 0.0500001 0
1.45 0.0500011 0
1.5 0.0500009 0
1.55 0.0499999 0
1.6 0.0500002 0
1.65 0.0500003 0
1.7 0.0499999 0
1.75 0.0499997 0
1.8 0.0499998 0
1.85 0.05 0
1.9 0.0499993 0
1.95 0.0499988 0
2 0.0499998 0
2.05 0.0500001 0
2.1 0.0499998 0
2.15 0.0500001 0
2.2 0.0499998 0
2.25 0.0499998 0
2.3 0.0499997 0
2.35 0.0499993 0
2.4 0.0500003 0
2.45 0.0500009 0
2.5 0.0500001 0
2.55 0.0500001 0
2.6 0.0500009 0
2.65 0.0500008 0
2.7 0.0500001 0
2.75 0.0500004 0
2.8 0.0500008 0
2.85 0.0499998 0
2.9 0.0499992 0
2.95 0.0499997 0
3 0.0499999 0
3.05 0.0499999 0
3.1 0.0499997 0
3.15 0.0499998 0
3.2 0.05 0
3.25 0.0499992 0
3.3 0.0499992 0
3.35 0.0500001 0
3.4 0.05 0
3.45 0.0499998 0
3.5 0.0499997 0
3.55 0.0499997 0
3.6 0.0500004 0
3.65 0.0500002 0
3.7 0.0500001 0
3.75 0.0500012 0
3.8 0.0500009 0
3.85 0.0499998 0
3.9 0.0500001 0
3.95 0.0500007 0
4 0.0500003 0
4.05 0.0499997 0
4.1 0.0500002 0
4.15 0.0500001 0
4.2 0.0499992 0
4.25 0.0499994 0
4.3 0.0499999 0
4.35 0.0500001 0
4.4 0.0499999 0
4.45 0.0499993 0
4.5 0.0499996 0
4.55 0.0499997 0
4.6 0.0499991 0
4.65 0.0499997 0
4.7 0.0500003 0
4.75 0.0500003 0
4.8 0.0500002 0
4.85 0.0499999 0
4.9 0.0500005 0
4.95 0.050001 0
5 0.0500001 0
5.05 0.0500003 0
5.1 0.0500008 0
5.15 0.05 0
5.2 0.0499994 0
5.25 0.0500002 0
5.3 0.0500008 0
5.35 0.0500001 0
5.4 0.0499997 0
5.45 0.05 0
5.5 0.0499996 0
5.55 0.0499991 0
5.6 0.0499994 0
5.65 0.0499997 0
5.7 0.05 0
5.75 0.0499995 0
5.8 0.0499993 0
5.85 0.0500001 0
5.9 0.0500001 0
5.95 0.0499999 0
6 0.0500004 0
6.05 0.0500004 0
6.1 0.0500003 0
6.15 0.0499999 0
6.2 0.0499999 0
6.25 0.050001 0
6.3 0.0500009 0
6.35 0.0499999 0
6.4 0.0500004 0
6.45 0.0500005 0
6.5 0.0499997 0
6.55 0.0499995 0
6.6 0.0500003 0
6.65 0.0500003 0
6.7 0.0499993 0
6.75 0.0499992 0
6.8 0.0499995 0
6.85 0.0499994 0
6.9 0.0499996 0
6.95 0.0499997 0
7 0.0500001 0
7.05 0.0500003 0
7.1 0.0499995 0
7.15 0.0499997 0
7.2 0.0500005 0
7.25 0.0500003 0
7.3 0.0500001 0
7.35 0.0500002 0
7.4 0.0500003 0
7.45 0.0500005 0
7.5 0.05 0
7.55 0.0500006 0
7.6 0.0500014 0
7.65 0.0500003 0
7.7 0.0499995 0
7.75 0.05 0
7.8 0.0499998 0
7.85 0.0499992 0
7.9 0.0499994 0
7.95 0.0500002 0
8 0.0499998 0
8.05 0.0499992 0
8.1 0.0499996 0
8.15 0.0499999 0
8.2 0.0500001 0
8.25 0.0499999 0
8.3 0.0499996 0
8.35 0.0500001 0
8.4 0.0499999 0
8.45 0.0499995 0
8.5 0.0500004 0
8.55 0.050001 0
8.6 0.0500007 0
8.65 0.0500004 0
8.7 0.0500002 0
8.75 0.0500006 0
8.8 0.0500003 0
8.85 0.0499997 0
8.9 0.0500005 0
8.95 0.0500005 0
9 0.0499992 0
9.05 0.0499992 0
9.1 0.0499999 0
9.15 0.0499998 0
9.2 0.0499995 0
9.25 0.0499998 0
9.3 0.0500001 0
9.35 0.0499995 0
9.4 0.0499993 0
9.45 0.0499997 0
9.5 0.05 0
9.55 0.0500003 0
9.6 0.0499997 0
9.65 0.0499997 0
9.7 0.0500006 0
9.75 0.0500004 0
9.8 0.0500004 0
9.85 0.0500009 0
9.9 0.0500005 0
9.95 0.0500001 0
10 0.05 0
0 0.1 0
0.0500004 0.0999993 0
0.1 0.0999997 0
0.15 0.1 0
0.2 0.1 0
0.25 0.0999995 0
0.3 0.0999998 0
0.35 0.1 0
0.4 0.1 0
0.45 0.0999998 0
0.5 0.1 0
0.55 0.1 0
0.6 0.1 0
0.65 0.0999997 0
0.7 0.1 0
0.75 0.1 0
0.8 0.1 0
0.85 0.1 0
0.9 0.1 0
0.95 0.1 0
1 0.0999999 0
1.05 0.0999998 0
1.1 0.1 0
1.15 0.1 0
1.2 0.0999997 0
1.25 0.0999995 0
1.3 0.1 0
1.35 0.1 0
1.4 0.0999996 0
1.45 0.0999999 0
1.5 0.1 0
1.55 0.1 0
1.6 0.0999995 0
1.65 0.1 0
1.7 0.1 0
1.75 0.1 0
1.8 0.1 0
1.85 0.1 0
1.9 0.1 0
1.95 0.0999998 0
2 0.0999998 0
2.05 0.1 0
2.1 0.1 0
2.15 0.0999999 0
2.2 0.0999999 0
2.25 0.0999999 0
2.3 0.1 0
2.35 0.0999998 0
2.4 0.0999997 0
2.45 0.1 0
2.5 0.1 0
2.55 0.0999994 0
2.6 0.0999996 0
2.65 0.1 0
2.7 0.1 0
2.75 0.0999997 0
2.8 0.1 0
2.85 0.1 0
2.9 0.0999998 0
2.95 0.0999997 0
3 0.1 0
3.05 0.1 0
3.1 0.1 0
3.15 0.0999999 0
3.2 0.1 0
3.25 0.1 0
3.3 0.0999998 0
3.35 0.1 0
3.4 0.1 0
3.45 0.1 0
3.5 0.0999997 0
3.55 0.0999997 0
3.6 0.0999999 0
3.65 0.1 0
3.7 0.0999997 0
3.75 0.0999997 0
3.8 0.1 0
3.85 0.0999999 0
3.9 0.0999994 0
3.95 0.1 0
4 0.1 0
4.05 0.1 0
4.1 0.0999997 0
4.15 0.1 0
4.2 0.1 0
4.25 0.0999998 0
4.3 0.1 0
4.35 0.1 0
4.4 0.1 0
4.45 0.1 0
4.5 0.0999998 0
4.55 0.1 0
4.6 0.1 0
4.65 0.0999997 0
4.7 0.1 0
4.75 0.1 0
4.8 0.0999999 0
4.85 0.0999996 0
4.9 0.0999997 0
4.95 0.1 0
5 0.1 0
5.05 0.0999996 0
5.1 0.0999998 0
5.15 0.1 0
5.2 0.0999998 0
5.25 0.0999996 0
5.3 0.1 0
5.35 0.100001 0
5.4 0.0999999 0
5.45 0.0999999 0
5.5 0.1 0
5.55 0.1 0
5.6 0.0999999 0
5.65 0.1 0
5.7 0.1 0
5.75 0.1 0
5.8 0.0999997 0
5.85 0.0999998 0
5.9 0.1 0
5.95 0.1 0
6 0.0999997 0
6.05 0.0999999 0
6.1 0.0999999 0
6.15 0.0999998 0
6.2 0.0999996 0
6.25 0.0999998 0
6.3 0.1 0
6.35 0.1 0
6.4 0.0999995 0
6.45 0.1 0
6.5 0.1 0
6.55 0.0999998 0
6.6 0.1 0
6.65 0.100001 0
6.7 0.1 0
6.75 0.0999997 0
6.8 0.1 0
6.85 0.1 0
6.9 0.1 0
6.95 0.1 0
7 0.1 0
7.05 0.1 0
7.1 0.1 0
7.15 0.0999995 0
7.2 0.0999999 0
7.25 0.1 0
7.3 0.0999999 0
7.35 0.0999996 0
7.4 0.0999998 0
7.45 0.1 0
7.5 0.0999999 0
7.55 0.0999997 0
7.6 0.1 0
7.65 0.100001 0
7.7 0.0999997 0
7.75 0.0999996 0
7.8 0.1 0
7.85 0.1 0
7.9 0.0999999 0
7.95 0.1 0
8 0.1 0
8.05 0.1 0
8.1 0.0999997 0
8.15 0.1 0
8.2 0.1 0
8.25 0.1 0
8.3 0.0999998 0
8.35 0.0999997 0
8.4 0.1 0
8.45 0.0999998 0
8.5 0.0999996 0
8.55 0.1 0
8.6 0.1 0
8.65 0.0999998 0
[...]
POINT_DATA 4221
VECTORS Displacements double
0 0 0.0
-4.78416e-07 7.01059e-09 0.0
-1.62638e-08 7.20416e-08 0.0
3.99754e-07 -4.85877e-07 0.0
-2.38304e-07 -5.7874e-07 0.0
-2.64981e-07 -1.46273e-07 0.0
2.29959e-07 -4.91491e-08 0.0
7.7513e-08 -3.05435e-07 0.0
-1.75365e-07 -9.30628e-08 0.0
-1.79036e-07 1.56066e-07 0.0
3.00149e-07 -3.16429e-07 0.0
3.48329e-07 -3.10527e-07 0.0
-3.73905e-07 3.67192e-07 0.0
-2.32331e-08 7.16613e-07 0.0
3.57177e-07 5.41584e-07 0.0
-1.50476e-07 8.04131e-08 0.0
-2.26898e-08 9.95739e-08 0.0
6.83713e-08 2.26622e-07 0.0
5.62182e-08 -1.14068e-07 0.0
1.95729e-07 8.41209e-08 0.0
-3.0844e-07 5.38455e-07 0.0
-2.1408e-07 3.23065e-07 0.0
3.82033e-07 -2.54581e-07 0.0
2.8867e-08 -5.41911e-07 0.0
-3.73984e-07 -1.41741e-07 0.0
2.80121e-08 8.96433e-08 0.0
3.12258e-07 -2.09243e-07 0.0
-2.63674e-07 -9.68731e-08 0.0
-4.26792e-07 5.03625e-08 0.0
3.25069e-07 -4.24191e-07 0.0
2.36224e-07 -8.13007e-07 0.0
-3.27323e-07 -4.12865e-07 0.0
-8.37554e-08 2.50365e-07 0.0
1.97601e-07 1.38265e-07 0.0
1.32872e-07 -1.93599e-07 0.0
-1.31152e-07 1.37432e-07 0.0
-8.87536e-08 2.66657e-07 0.0
4.36046e-07 3.62563e-08 0.0
6.60787e-08 2.81914e-07 0.0
-4.16589e-07 6.74022e-07 0.0
1.33828e-07 6.3734e-07 0.0
1.60092e-07 2.89669e-08 0.0
-4.95514e-08 -4.56164e-07 0.0
4.63678e-08 -6.38964e-08 0.0
-1.25016e-07 1.86941e-07 0.0
1.88727e-07 3.31656e-08 0.0
1.10374e-07 2.88692e-07 0.0
-4.83103e-07 4.15158e-07 0.0
2.51677e-08 2.53546e-08 0.0
3.90523e-07 -5.43972e-07 0.0
-2.0788e-07 -5.77721e-07 0.0
-4.06582e-07 -1.25159e-09 0.0
1.41251e-07 -1.07334e-07 0.0
2.69018e-07 -5.65223e-07 0.0
-3.69027e-07 -3.83243e-07 0.0
-1.28868e-07 -1.97802e-07 0.0
4.81637e-07 -3.06462e-07 0.0
2.22458e-08 -2.20935e-07 0.0
-2.52737e-07 4.27091e-07 0.0
-2.82636e-08 7.95668e-07 0.0
1.7597e-07 1.31997e-07 0.0
1.83989e-07 -2.4155e-07 0.0
-2.35849e-07 7.01522e-08 0.0
2.34147e-08 1.38728e-07 0.0
4.02388e-07 1.43265e-07 0.0
-1.82492e-07 3.1941e-07 0.0
-2.17263e-07 5.30985e-07 0.0
1.70096e-07 3.85252e-07 0.0
8.9873e-08 -2.55506e-07 0.0
9.39004e-08 -2.83578e-07 0.0
-1.89421e-07 3.16986e-07 0.0
-1.98933e-07 2.88588e-07 0.0
3.13714e-07 -9.59063e-08 0.0
-1.39674e-07 -1.89559e-07 0.0
-4.55815e-07 -2.36861e-07 0.0
2.71299e-07 -4.93941e-07 0.0
2.89991e-07 -7.45962e-07 0.0
-3.61102e-07 -2.64167e-07 0.0
-2.84893e-07 3.16883e-07 0.0
3.48326e-07 -9.31459e-08 0.0
1.65783e-07 -4.61977e-07 0.0
-3.66582e-07 -1.49881e-07 0.0
1.28479e-07 1.26955e-07 0.0
3.31709e-07 9.83848e-08 0.0
-1.28774e-07 1.50681e-07 0.0
-1.57183e-07 5.93791e-07 0.0
-3.3564e-08 4.38429e-07 0.0
3.00765e-07 -3.21414e-07 0.0
1.52249e-07 -2.40283e-07 0.0
-3.20366e-07 2.7654e-07 0.0
1.73965e-07 4.85722e-07 0.0
2.22204e-07 4.38623e-07 0.0
-2.52452e-07 2.67028e-07 0.0
-6.29537e-08 3.23782e-07 0.0
1.94828e-08 -1.18209e-08 0.0
1.35808e-07 -5.69006e-07 0.0
2.148e-08 -2.36255e-07 0.0
-4.59202e-07 1.88106e-07 0.0
3.43844e-08 -1.18431e-07 0.0
3.7305e-07 -5.48407e-07 0.0
-3.08509e-07 -5.15967e-07 0.0
-2.38275e-07 -1.69747e-07 0.0
3.94843e-07 -1.93167e-07 0.0
1.07097e-07 -2.23177e-07 0.0
-4.67301e-07 2.97508e-07 0.0
-7.37224e-08 3.23756e-07 0.0
4.51834e-07 -3.77284e-07 0.0
-2.64327e-08 -5.57768e-07 0.0
-2.32853e-07 -1.83283e-08 0.0
2.27791e-07 4.07425e-07 0.0
1.50705e-07 3.23855e-07 0.0
-4.87461e-08 3.68665e-07 0.0
-1.21969e-07 6.50426e-07 0.0
8.47633e-09 2.43891e-07 0.0
3.85665e-07 -2.23503e-07 0.0
-9.8782e-08 8.16752e-08 0.0
-3.50024e-07 4.21118e-07 0.0
2.0977e-07 3.63713e-07 0.0
4.25811e-08 -1.25255e-07 0.0
-1.30965e-07 -3.7042e-07 0.0
-6.39262e-08 -7.05782e-08 0.0
-3.34167e-08 -2.59701e-07 0.0
2.75082e-07 -3.86256e-07 0.0
-2.23149e-07 1.27727e-07 0.0
-4.70179e-07 2.02321e-07 0.0
3.56296e-07 -3.26574e-07 0.0
2.22516e-07 -7.61308e-07 0.0
-4.04877e-07 -4.51205e-07 0.0
-4.82818e-08 7.78153e-08 0.0
3.89697e-07 -7.16489e-08 0.0
-5.21015e-08 -3.7886e-08 0.0
-4.01322e-07 3.43059e-07 0.0
2.3721e-07 1.27679e-07 0.0
4.01228e-07 -2.86106e-07 0.0
-1.5923e-07 -6.72386e-08 0.0
-8.32712e-08 6.3038e-07 0.0
1.01961e-07 7.70866e-07 0.0
8.41041e-08 2.53678e-07 0.0
2.2529e-08 1.53942e-07 0.0
-2.33107e-07 2.05329e-07 0.0
1.2206e-07 -1.52531e-07 0.0
3.1272e-07 -2.29384e-07 0.0
-3.23124e-07 1.0038e-07 0.0
-2.03976e-07 3.37378e-07 0.0
1.98055e-07 6.01314e-08 0.0
4.83552e-08 -5.37475e-07 0.0
-4.86628e-08 -3.64253e-07 0.0
-2.38893e-07 1.04431e-07 0.0
6.10477e-08 -1.43249e-07 0.0
2.49589e-07 -2.37231e-07 0.0
-4.86539e-07 -3.69438e-08 0.0
-1.89897e-07 -2.50161e-07 0.0
5.51757e-07 -7.1043e-07 0.0
1.90114e-08 -7.33832e-07 0.0
-3.52257e-07 1.03121e-07 0.0
1.33407e-07 6.00746e-07 0.0
3.60699e-07 2.65127e-07 0.0
-1.70173e-07 2.92654e-07 0.0
-2.36692e-07 4.35037e-07 0.0
3.63816e-07 1.4565e-07 0.0
1.37676e-07 -1.06475e-07 0.0
-1.9411e-07 1.46531e-07 0.0
-5.9308e-08 6.161e-07 0.0
-1.39934e-08 2.65192e-07 0.0
2.44244e-07 -3.06339e-07 0.0
-1.72875e-08 -9.6776e-08 0.0
-2.9014e-07 1.43066e-07 0.0
2.68205e-07 1.31556e-07 0.0
8.48815e-08 1.11723e-07 0.0
-3.9837e-07 1.41622e-07 0.0
-8.97441e-08 1.05331e-07 0.0
1.31077e-07 -5.36372e-07 0.0
1.30314e-07 -9.60303e-07 0.0
-1.78183e-07 -3.3524e-07 0.0
-3.00509e-07 7.67868e-08 0.0
3.31194e-07 -1.78657e-07 0.0
1.1233e-07 -2.14647e-07 0.0
-4.84744e-07 -2.27216e-08 0.0
1.89841e-07 -5.81177e-08 0.0
4.93107e-07 -2.92862e-07 0.0
-1.96144e-07 1.03976e-08 0.0
-2.96458e-07 7.47095e-07 0.0
2.34679e-07 5.90356e-07 0.0
2.5468e-07 -3.60539e-08 0.0
-2.34214e-07 -2.18275e-08 0.0
-3.21125e-08 1.73296e-07 0.0
2.8752e-07 1.40879e-07 0.0
-2.40682e-08 7.03108e-08 0.0
-8.93415e-08 3.69184e-07 0.0
-1.45407e-07 5.49471e-07 0.0
4.98549e-08 -1.01168e-07 0.0
3.57236e-07 -4.31881e-07 0.0
-2.80491e-07 -2.86095e-08 0.0
-2.97944e-07 2.36584e-07 0.0
2.42345e-07 9.97524e-08 0.0
-9.75215e-08 -4.25613e-07 0.0
-1.43455e-07 -5.90575e-07 0.0
6.01972e-08 -3.46837e-07 0.0
4.98392e-08 -3.75522e-07 0.0
-4.68465e-08 -1.47988e-07 0.0
-2.36725e-07 2.62997e-08 0.0
0 0 0.0
1.89937e-07 -9.77837e-07 0.0
-4.00214e-07 6.91926e-07 0.0
-1.99234e-08 9.10868e-07 0.0
4.01937e-07 1.60228e-07 0.0
-4.7475e-08 1.859e-07 0.0
-1.99362e-07 7.46787e-07 0.0
5.16419e-08 2.91934e-07 0.0
8.29493e-08 -1.09605e-07 0.0
-1.40254e-07 2.15376e-07 0.0
-2.6603e-07 4.91428e-07 0.0
2.63276e-07 1.03321e-07 0.0
2.74852e-07 -8.99816e-07 0.0
-4.18023e-07 -6.83696e-07 0.0
-1.99836e-07 -1.24124e-07 0.0
1.10761e-07 -6.87215e-07 0.0
-4.23659e-08 -4.01717e-07 0.0
4.08922e-08 5.78835e-08 0.0
1.53634e-08 -2.65182e-07 0.0
1.34497e-07 -2.79519e-07 0.0
1.57688e-07 -6.12223e-07 0.0
-2.95909e-07 -3.13348e-07 0.0
-1.60749e-07 6.66107e-07 0.0
3.83447e-07 2.42554e-07 0.0
2.44801e-07 -2.05767e-07 0.0
-2.16584e-07 4.03441e-07 0.0
-4.87477e-08 4.69376e-07 0.0
2.81246e-07 -1.45697e-07 0.0
-1.68069e-07 1.1045e-07 0.0
-3.41055e-07 1.14841e-06 0.0
2.96331e-07 8.68118e-07 0.0
3.09954e-07 -7.44571e-08 0.0
-1.94236e-07 1.69213e-07 0.0
-2.44263e-07 3.49278e-07 0.0
4.71662e-09 -9.95892e-08 0.0
1.34804e-07 -3.33681e-07 0.0
-1.67366e-07 -2.458e-07 0.0
-1.69367e-07 -3.63637e-08 0.0
3.07422e-07 -6.56568e-07 0.0
-3.64746e-08 -1.18266e-06 0.0
-4.2369e-07 -2.47024e-07 0.0
-8.70517e-09 1.3326e-07 0.0
1.63468e-07 -1.77353e-07 0.0
1.94347e-07 5.56172e-08 0.0
8.57869e-08 -1.50493e-07 0.0
-1.24896e-07 -2.24891e-07 0.0
1.71929e-07 -2.66039e-07 0.0
4.24015e-08 -6.66706e-07 0.0
-3.61836e-07 2.66297e-07 0.0
5.23382e-08 9.33193e-07 0.0
4.44645e-07 9.58548e-08 0.0
4.49721e-08 1.07172e-07 0.0
-3.60354e-07 8.79301e-07 0.0
6.54152e-08 7.75754e-07 0.0
3.04063e-07 1.41063e-07 0.0
-2.32081e-07 4.35845e-07 0.0
-1.11903e-07 8.44811e-07 0.0
3.05879e-07 -2.14072e-07 0.0
-1.27181e-11 -8.29501e-07 0.0
-3.35307e-07 -2.91155e-07 0.0
-2.96085e-07 -6.61418e-08 0.0
1.16412e-07 -8.56387e-08 0.0
2.35295e-07 -3.22032e-07 0.0
-1.90009e-07 -1.9119e-07 0.0
-4.42064e-09 -5.53461e-09 0.0
2.49277e-07 -8.16939e-07 0.0
-1.76616e-07 -7.88765e-07 0.0
-2.07836e-07 6.67044e-08 0.0
7.74365e-08 -1.88002e-08 0.0
2.14216e-07 -1.69543e-07 0.0
2.26714e-07 -2.81158e-07 0.0
-1.91513e-07 -2.55525e-07 0.0
-1.79224e-07 3.80692e-07 0.0
2.89081e-07 1.78078e-07 0.0
-1.22937e-09 1.05515e-07 0.0
-2.33408e-07 1.15864e-06 0.0
2.57842e-07 9.00129e-07 0.0
3.58855e-07 -1.8301e-07 0.0
-2.46555e-07 1.0924e-07 0.0
-4.0518e-07 7.48241e-07 0.0
2.21744e-07 3.14982e-07 0.0
1.91086e-07 -2.71149e-07 0.0
-2.76048e-07 1.70398e-07 0.0
-5.84286e-09 1.42825e-07 0.0
1.22663e-07 -7.5157e-07 0.0
-1.24961e-07 -6.26888e-07 0.0
-2.71593e-07 -6.62199e-08 0.0
-1.40567e-07 1.48626e-07 0.0
3.70403e-07 -8.10485e-08 0.0
1.84657e-07 -7.0735e-07 0.0
-2.76946e-07 -4.05726e-07 0.0
3.41227e-08 -3.32669e-07 0.0
7.65703e-08 -8.85082e-07 0.0
-1.26537e-07 -2.50265e-07 0.0
-3.41324e-08 3.19287e-07 0.0
7.33395e-08 2.83612e-07 0.0
3.15696e-07 2.11221e-07 0.0
9.52787e-08 -1.09643e-07 0.0
-3.76969e-07 5.219e-07 0.0
4.04416e-08 9.93412e-07 0.0
3.91366e-07 1.4666e-07 0.0
-8.87242e-08 2.5465e-07 0.0
-2.08068e-07 8.32928e-07 0.0
2.27039e-07 1.78666e-08 0.0
9.03679e-08 -5.8264e-07 0.0
-4.76694e-07 2.39861e-07 0.0
-1.95919e-07 8.05689e-07 0.0
3.97237e-07 8.15833e-08 0.0
8.42868e-08 -3.26788e-07 0.0
-2.04624e-07 -1.06231e-08 0.0
-1.64635e-08 -4.46704e-07 0.0
-3.52781e-09 -9.05803e-07 0.0
-6.76585e-08 -6.15422e-07 0.0
-2.23766e-07 -2.52364e-07 0.0
1.67529e-08 2.45041e-08 0.0
4.20132e-07 -4.5677e-07 0.0
-5.49129e-08 -7.29639e-07 0.0
-2.77169e-07 1.20674e-07 0.0
9.77674e-08 1.4608e-07 0.0
1.24381e-07 -6.84845e-08 0.0
1.07538e-07 3.82322e-07 0.0
-2.73105e-08 3.80416e-07 0.0
3.93664e-08 3.44889e-07 0.0
2.91666e-07 -7.02375e-08 0.0
-2.19469e-07 -1.43186e-07 0.0
-3.94637e-07 1.02814e-06 0.0
2.87728e-07 8.60364e-07 0.0
3.33542e-07 -7.50095e-08 0.0
-2.22257e-07 3.88953e-07 0.0
-1.9496e-07 5.34496e-07 0.0
2.18135e-07 -3.24245e-07 0.0
-7.42544e-08 -4.8764e-07 0.0
-4.25307e-07 3.29939e-07 0.0
1.15305e-07 2.8031e-07 0.0
3.35329e-07 -7.2145e-07 0.0
-9.41392e-08 -7.62323e-07 0.0
-2.23165e-07 -4.70461e-07 0.0
-1.25492e-07 -5.84607e-07 0.0
8.55025e-08 -4.17242e-07 0.0
7.54216e-08 -2.63077e-07 0.0
-1.54665e-07 1.37958e-07 0.0
2.02375e-07 2.57225e-07 0.0
3.14302e-07 -5.10862e-07 0.0
-2.14203e-07 -2.66884e-07 0.0
-1.73657e-07 5.30893e-07 0.0
1.34221e-07 2.90914e-07 0.0
2.31845e-07 1.32355e-07 0.0
9.01482e-08 1.75161e-07 0.0
-2.54429e-07 3.30973e-07 0.0
5.39832e-08 4.9469e-07 0.0
2.02223e-07 -1.39015e-08 0.0
-3.64975e-07 5.5103e-07 0.0
-1.20852e-07 1.43526e-06 0.0
4.74901e-07 3.03418e-07 0.0
1.50567e-07 -5.04468e-07 0.0
-3.91966e-07 -3.30143e-08 0.0
-1.77247e-07 -2.22141e-07 0.0
1.8521e-07 -8.45181e-07 0.0
-1.95058e-07 -5.91086e-07 0.0
-2.45379e-07 1.60321e-07 0.0
2.50871e-07 -2.04012e-07 0.0
1.44562e-07 -7.67255e-07 0.0
-1.09031e-07 -3.56075e-07 0.0
-1.7968e-07 -1.09756e-07 0.0
-2.24495e-08 5.27849e-08 0.0
3.52928e-07 -8.0038e-08 0.0
5.81695e-08 -4.13179e-07 0.0
-1.92448e-07 8.71524e-08 0.0
1.83278e-07 -8.27966e-08 0.0
5.74654e-08 -5.28458e-07 0.0
-2.39807e-07 3.96663e-07 0.0
-6.64357e-08 9.90063e-07 0.0
2.26883e-07 7.33089e-07 0.0
3.4634e-07 3.79443e-07 0.0
-1.16563e-07 2.03241e-07 0.0
-3.41763e-07 6.28235e-07 0.0
2.02795e-07 3.09217e-07 0.0
7.61184e-08 -3.24308e-07 0.0
-3.78382e-07 4.85164e-07 0.0
6.46321e-08 5.25546e-07 0.0
3.61568e-07 -7.91743e-07 0.0
-1.58122e-07 -8.25502e-07 0.0
-4.65113e-07 -7.32337e-08 0.0
1.99671e-08 -1.6974e-07 0.0
2.51636e-07 -5.37929e-07 0.0
-1.2357e-07 -1.95296e-07 0.0
-1.49679e-08 6.81225e-08 0.0
1.74714e-07 -5.2568e-07 0.0
8.99653e-09 -6.55447e-07 0.0
-7.18772e-08 -2.75454e-07 0.0
-2.03288e-07 4.5021e-08 0.0
1.60956e-07 3.31902e-07 0.0
4.33205e-07 -2.67353e-07 0.0
-1.76847e-07 -2.82048e-07 0.0
-2.31882e-07 6.2469e-07 0.0
1.38409e-07 4.08994e-07 0.0
9.27256e-08 3.83061e-07 0.0
2.64451e-08 8.68664e-07 0.0
3.84726e-08 4.5594e-07 0.0
1.51079e-07 9.06421e-08 0.0
8.45124e-08 3.88895e-08 0.0
0 0 0.0
4.0266e-07 -6.59635e-07 0.0
1.76818e-07 -3.42337e-07 0.0
-3.169e-07 8.0654e-08 0.0
-1.45062e-07 2.53498e-07 0.0
1.98564e-07 -4.78994e-07 0.0
-2.77757e-08 -2.16735e-07 0.0
1.44847e-08 2.31923e-07 0.0
-4.12145e-08 -3.064e-08 0.0
9.33998e-08 -1.50805e-07 0.0
7.96402e-09 2.13719e-07 0.0
-4.51437e-07 4.33781e-07 0.0
2.38259e-07 3.5244e-08 0.0
4.54997e-07 -3.41475e-07 0.0
-1.4503e-07 2.23308e-07 0.0
6.58186e-08 4.89376e-07 0.0
-1.26848e-07 -2.50378e-08 0.0
-2.1764e-07 6.41369e-08 0.0
9.09436e-08 2.27862e-07 0.0
-1.82991e-07 -2.13226e-08 0.0
1.36341e-07 -1.3642e-07 0.0
3.62105e-07 -2.40005e-07 0.0
-2.51857e-07 7.05869e-08 0.0
-3.3888e-07 3.20764e-07 0.0
7.43463e-08 -2.76768e-07 0.0
2.50784e-07 -4.90394e-07 0.0
-3.97829e-08 1.95586e-08 0.0
-2.24858e-08 -6.69455e-09 0.0
3.41109e-07 -4.421e-07 0.0
-1.43085e-07 -1.23202e-07 0.0
-4.55307e-07 4.24556e-07 0.0
4.60199e-08 -4.64354e-08 0.0
1.80213e-07 -4.73483e-07 0.0
1.23322e-07 7.24099e-08 0.0
-4.62605e-08 3.69746e-07 0.0
-1.1906e-07 9.46804e-08 0.0
2.32893e-07 -1.99998e-08 0.0
-9.04482e-08 2.19455e-07 0.0
-1.74976e-07 3.34421e-07 0.0
4.58065e-07 -1.52284e-07 0.0
6.98168e-08 -2.10119e-07 0.0
-2.65951e-07 4.50483e-07 0.0
-1.64921e-07 3.51822e-07 0.0
-3.59741e-07 -9.6862e-08 0.0
1.36255e-07 -5.5317e-08 0.0
1.98631e-07 -6.74261e-08 0.0
-1.14863e-07 -4.70955e-08 0.0
3.77958e-07 -1.81108e-07 0.0
1.76245e-07 -3.17307e-07 0.0
-3.76884e-07 1.73222e-07 0.0
-2.0122e-07 1.27206e-07 0.0
1.93645e-07 -5.66299e-07 0.0
1.80739e-07 -3.64182e-07 0.0
-3.13548e-07 2.59225e-07 0.0
-6.34945e-08 5.55037e-08 0.0
2.07667e-07 -3.31554e-07 0.0
-2.51604e-07 1.15946e-07 0.0
-7.42835e-10 3.66436e-07 0.0
3.20364e-07 -2.47491e-07 0.0
2.60874e-07 -2.62587e-07 0.0
1.14801e-07 3.3875e-07 0.0
-3.96404e-07 4.35231e-07 0.0
-1.48836e-07 1.30746e-07 0.0
1.53912e-07 -7.53809e-08 0.0
-2.55548e-07 1.94536e-07 0.0
8.88735e-08 2.42701e-07 0.0
2.99761e-07 -2.37561e-07 0.0
-1.13365e-07 -1.44743e-08 0.0
-7.35324e-08 3.99225e-07 0.0
-2.04937e-07 5.08196e-08 0.0
-2.31634e-08 -2.57652e-07 0.0
4.56357e-07 -2.9997e-07 0.0
-6.91715e-08 -1.092e-07 0.0
-2.16555e-07 9.89858e-08 0.0
1.98761e-07 -2.71427e-07 0.0
-1.45926e-07 -2.6629e-07 0.0
-3.47929e-07 2.54541e-07 0.0
4.63091e-08 -1.09686e-07 0.0
4.16015e-07 -5.97139e-07 0.0
7.45463e-08 -1.76755e-08 0.0
-3.50071e-07 4.78605e-07 0.0
1.18779e-07 1.75228e-09 0.0
1.09e-07 -2.61469e-07 0.0
-1.25933e-07 2.56866e-07 0.0
1.84803e-07 2.37859e-07 0.0
9.16362e-08 -2.04266e-07 0.0
1.02896e-07 6.35001e-08 0.0
-2.00688e-07 4.56589e-07 0.0
-5.24265e-07 3.83511e-07 0.0
2.04366e-07 -4.52631e-08 0.0
2.06775e-07 -2.36308e-07 0.0
-6.17087e-08 1.92485e-07 0.0
2.61765e-07 1.14809e-07 0.0
-1.80296e-08 -2.64409e-07 0.0
-8.33925e-08 4.29543e-08 0.0
-9.85819e-08 1.4242e-07 0.0
-3.09925e-07 -1.48301e-07 0.0
2.69748e-07 -3.58739e-07 0.0
2.59113e-07 -3.4748e-07 0.0
-3.86963e-07 1.5575e-07 0.0
-1.13859e-07 1.46264e-07 0.0
2.29179e-07 -4.3899e-07 0.0
-6.25008e-09 -1.53635e-07 0.0
-7.87034e-08 2.53876e-07 0.0
2.82144e-07 -2.37414e-07 0.0
3.16255e-07 -3.5813e-07 0.0
-3.47387e-07 3.89628e-07 0.0
-3.7628e-07 5.39676e-07 0.0
1.08385e-07 -1.3535e-07 0.0
2.51457e-08 -1.43681e-07 0.0
1.19304e-07 3.27193e-07 0.0
1.35981e-07 1.53724e-07 0.0
1.55894e-08 -5.25268e-08 0.0
1.55452e-07 1.52876e-07 0.0
-3.37122e-07 3.23496e-07 0.0
-2.3102e-07 1.76406e-07 0.0
3.96433e-07 -3.18735e-07 0.0
-2.0173e-08 -2.38982e-07 0.0
-9.44807e-08 2.7725e-07 0.0
-5.66977e-08 1.28355e-08 0.0
-2.00364e-07 -2.66184e-07 0.0
1.83882e-07 -8.24208e-08 0.0
-8.85005e-08 -8.08116e-08 0.0
-2.57081e-08 -1.83512e-07 0.0
5.22376e-07 -4.09651e-07 0.0
-9.05426e-08 -1.62025e-07 0.0
-4.67575e-07 4.28439e-07 0.0
-5.36263e-09 -2.27908e-08 0.0
2.1186e-07 -4.94496e-07 0.0
-3.96574e-09 9.67814e-08 0.0
-9.01768e-08 3.13413e-07 0.0
2.85466e-07 -1.70807e-07 0.0
3.27701e-08 -3.14891e-08 0.0
-4.20408e-07 5.85645e-07 0.0
9.85958e-11 3.10038e-07 0.0
2.04622e-07 -3.01654e-07 0.0
1.79929e-07 -1.60496e-08 0.0
1.38411e-07 3.13888e-07 0.0
-2.35587e-07 1.49704e-07 0.0
-3.45772e-08 1.11009e-08 0.0
6.51367e-09 7.27466e-10 0.0
-3.92869e-07 1.64654e-07 0.0
1.18555e-07 -3.56295e-08 0.0
3.14638e-07 -4.64383e-07 0.0
-8.49358e-08 -7.66138e-08 0.0
-5.01308e-08 2.67529e-07 0.0
-1.82738e-07 -1.4688e-07 0.0
1.34995e-07 -3.64771e-07 0.0
3.37279e-07 -2.40695e-07 0.0
-2.47906e-07 -2.19124e-08 0.0
8.37225e-08 -6.8435e-08 0.0
2.17596e-07 -3.20123e-07 0.0
-4.89506e-07 1.97256e-07 0.0
-3.3246e-07 5.02031e-07 0.0
2.24729e-07 -2.68528e-07 0.0
3.75354e-07 -3.53932e-07 0.0
4.01897e-08 3.64748e-07 0.0
-7.64462e-09 3.27173e-07 0.0
2.62194e-07 -1.24154e-07 0.0
-2.08051e-07 1.38869e-07 0.0
-2.59881e-07 4.93887e-07 0.0
8.99003e-08 8.41036e-09 0.0
3.82878e-09 -2.70678e-07 0.0
1.43296e-07 1.3066e-07 0.0
-2.03579e-07 2.78262e-07 0.0
-3.40562e-07 1.28475e-07 0.0
2.96826e-07 -1.92701e-07 0.0
7.86238e-08 -2.52216e-07 0.0
-5.02199e-08 7.19495e-08 0.0
3.12346e-07 -2.09551e-07 0.0
2.862e-08 -4.20366e-07 0.0
-1.65143e-07 1.06409e-07 0.0
-3.00954e-07 1.77112e-07 0.0
-2.20353e-07 -2.37102e-07 0.0
4.08269e-07 -4.10173e-07 0.0
1.08717e-07 -1.31143e-07 0.0
-2.80659e-07 2.75154e-07 0.0
2.43884e-07 -2.38666e-08 0.0
6.63962e-08 -2.06395e-07 0.0
-3.36705e-07 4.22587e-07 0.0
2.4375e-08 2.98808e-07 0.0
3.85443e-07 -3.98478e-07 0.0
2.04319e-07 -4.23226e-08 0.0
-2.82296e-07 5.76233e-07 0.0
-1.27604e-07 2.6056e-07 0.0
2.78447e-08 -1.45334e-07 0.0
-2.17336e-07 1.50498e-07 0.0
7.58121e-08 2.48286e-07 0.0
8.02946e-08 -1.67397e-07 0.0
7.5875e-08 -1.55939e-07 0.0
1.69396e-07 1.09275e-07 0.0
-4.18825e-07 1.69803e-07 0.0
-4.17651e-08 -5.0315e-08 0.0
4.56223e-07 -5.36805e-07 0.0
-8.07567e-08 -2.68308e-07 0.0
-6.27761e-08 2.33141e-07 0.0
-8.08774e-08 -1.2046e-07 0.0
-1.45922e-07 -2.81547e-07 0.0
1.20665e-07 -6.96389e-08 0.0
-1.62471e-07 2.46026e-08 0.0
2.34764e-07 -5.71764e-08 0.0
0 0 0.0
-1.60012e-07 2.60225e-07 0.0
7.64666e-09 -7.18061e-07 0.0
2.8514e-07 -4.02428e-07 0.0
-1.50936e-08 4.09758e-07 0.0
8.24421e-09 1.36377e-07 0.0
-3.83878e-08 -3.44897e-07 0.0
-3.72303e-09 5.10832e-08 0.0
1.68413e-07 1.01479e-07 0.0
-1.70337e-07 -2.13947e-07 0.0
1.13751e-08 -4.52011e-08 0.0
1.49887e-07 1.78053e-07 0.0
-3.44156e-07 5.51081e-07 0.0
-3.65166e-08 -6.85779e-08 0.0
1.14453e-07 -6.5642e-07 0.0
2.4429e-08 1.25066e-07 0.0
3.09812e-07 -6.66252e-09 0.0
-6.27626e-08 -2.07616e-07 0.0
-1.3339e-07 3.91065e-07 0.0
1.21343e-07 1.45999e-07 0.0
-1.84667e-07 6.15196e-08 0.0
-1.05664e-07 -9.51256e-08 0.0
1.66658e-07 -4.62353e-07 0.0
1.03655e-07 2.52169e-07 0.0
-1.34749e-07 4.8685e-07 0.0
-2.21896e-07 -1.18913e-07 0.0
1.00005e-07 -1.73887e-07 0.0
7.10811e-08 6.43044e-08 0.0
-4.74544e-08 -1.5565e-07 0.0
2.3426e-07 -5.6207e-07 0.0
1.18366e-07 5.81468e-08 0.0
-8.44589e-08 6.57014e-07 0.0
-1.23661e-07 -4.32273e-08 0.0
-1.9466e-07 -2.63806e-07 0.0
1.1338e-07 1.00902e-07 0.0
3.95485e-08 4.45997e-08 0.0
-2.1837e-07 3.94112e-08 0.0
1.50043e-07 -7.92955e-08 0.0
1.28893e-08 1.25093e-07 0.0
-1.0871e-07 2.28844e-07 0.0
2.60522e-07 -6.32562e-07 0.0
7.76199e-08 -4.14582e-07 0.0
1.49189e-07 4.1015e-07 0.0
7.27257e-08 1.78188e-07 0.0
-4.55334e-07 3.3591e-07 0.0
-1.29731e-07 2.93549e-07 0.0
1.5528e-08 -1.08814e-07 0.0
-1.69539e-07 5.67457e-08 0.0
1.23228e-07 -4.3095e-07 0.0
2.5314e-07 -4.2493e-07 0.0
1.66505e-07 4.24107e-07 0.0
-1.17852e-07 1.42238e-07 0.0
-5.58853e-08 -3.88771e-07 0.0
2.18128e-07 -1.46775e-07 0.0
-1.13315e-07 3.09221e-07 0.0
-1.20537e-07 9.64883e-08 0.0
-2.35777e-08 -1.90875e-07 0.0
-1.91992e-07 4.81895e-07 0.0
-1.93206e-08 2.89778e-07 0.0
-6.6039e-08 -5.7398e-07 0.0
1.26833e-07 -3.96531e-07 0.0
4.26392e-07 -1.16672e-07 0.0
-3.79757e-08 1.81127e-07 0.0
-9.15584e-08 2.0702e-07 0.0
4.98888e-08 -7.68579e-08 0.0
-2.17697e-07 3.65979e-07 0.0
-9.86737e-09 8.1361e-08 0.0
3.12738e-08 -5.29088e-07 0.0
-7.79283e-08 1.26236e-07 0.0